3
Lattice="100.   0.   0.   0. 100.   0.   0.   0.   1." Properties=species:S:1:pos:R:3 Time=0.0
P 6.0000000000e+00 1.0000000000e+01 0.0000000000e+00 610
P 8.0000000000e+00 1.0000000000e+01 0.0000000000e+00 810
P 1.0000000000e+01 1.0000000000e+01 0.0000000000e+00 1010
3
Lattice="100.   0.   0.   0. 100.   0.   0.   0.   1." Properties=species:S:1:pos:R:3 Time=0.05692824899
P 6.0000000000e+00 9.0000000000e+00 0.0000000000e+00 610
P 8.0000000000e+00 1.0000000000e+01 0.0000000000e+00 810
P 1.0000000000e+01 1.0000000000e+01 0.0000000000e+00 1010
3
Lattice="100.   0.   0.   0. 100.   0.   0.   0.   1." Properties=species:S:1:pos:R:3 Time=0.067035941602
P 6.0000000000e+00 9.0000000000e+00 0.0000000000e+00 610
P 8.0000000000e+00 1.0000000000e+01 0.0000000000e+00 810
P 1.0000000000e+01 9.0000000000e+00 0.0000000000e+00 1010
3
Lattice="100.   0.   0.   0. 100.   0.   0.   0.   1." Properties=species:S:1:pos:R:3 Time=0.087744053998
P 6.0000000000e+00 9.0000000000e+00 0.0000000000e+00 610
P 8.0000000000e+00 1.1000000000e+01 0.0000000000e+00 810
P 1.0000000000e+01 9.0000000000e+00 0.0000000000e+00 1010
3
Lattice="100.   0.   0.   0. 100.   0.   0.   0.   1." Properties=species:S:1:pos:R:3 Time=inf
P 6.0000000000e+00 8.0000000000e+00 0.0000000000e+00 610
P 8.0000000000e+00 1.1000000000e+01 0.0000000000e+00 810
P 1.0000000000e+01 9.0000000000e+00 0.0000000000e+00 1010
3
Lattice="100.   0.   0.   0. 100.   0.   0.   0.   1." Properties=species:S:1:pos:R:3 Time=inf
P 6.0000000000e+00 8.0000000000e+00 0.0000000000e+00 610
P 8.0000000000e+00 1.0000000000e+01 0.0000000000e+00 810
P 1.0000000000e+01 9.0000000000e+00 0.0000000000e+00 1010
3
Lattice="100.   0.   0.   0. 100.   0.   0.   0.   1." Properties=species:S:1:pos:R:3 Time=inf
P 6.0000000000e+00 7.0000000000e+00 0.0000000000e+00 610
P 8.0000000000e+00 1.0000000000e+01 0.0000000000e+00 810
P 1.0000000000e+01 9.0000000000e+00 0.0000000000e+00 1010
3
Lattice="100.   0.   0.   0. 100.   0.   0.   0.   1." Properties=species:S:1:pos:R:3 Time=inf
P 6.0000000000e+00 7.0000000000e+00 0.0000000000e+00 610
P 8.0000000000e+00 9.0000000000e+00 0.0000000000e+00 810
P 1.0000000000e+01 9.0000000000e+00 0.0000000000e+00 1010
3
Lattice="100.   0.   0.   0. 100.   0.   0.   0.   1." Properties=species:S:1:pos:R:3 Time=inf
P 6.0000000000e+00 6.0000000000e+00 0.0000000000e+00 610
P 8.0000000000e+00 9.0000000000e+00 0.0000000000e+00 810
P 1.0000000000e+01 9.0000000000e+00 0.0000000000e+00 1010
3
Lattice="100.   0.   0.   0. 100.   0.   0.   0.   1." Properties=species:S:1:pos:R:3 Time=inf
P 6.0000000000e+00 6.0000000000e+00 0.0000000000e+00 610
P 8.0000000000e+00 8.0000000000e+00 0.0000000000e+00 810
P 1.0000000000e+01 9.0000000000e+00 0.0000000000e+00 1010
3
Lattice="100.   0.   0.   0. 100.   0.   0.   0.   1." Properties=species:S:1:pos:R:3 Time=inf
P 6.0000000000e+00 5.0000000000e+00 0.0000000000e+00 610
P 8.0000000000e+00 8.0000000000e+00 0.0000000000e+00 810
P 1.0000000000e+01 9.0000000000e+00 0.0000000000e+00 1010
